# Residuals   
# Time        	p             	Ux            	Uy            	Uz            
0.1           	1.0000000e+00	1.0000000e+00	0.0000000e+00	0.0000000e+00
0.2           	5.7540180e-01	2.8286200e-01	3.3360440e-01	3.3360440e-01
0.3           	2.1163110e-01	1.5802370e-02	1.7502380e-02	1.7502370e-02
0.4           	1.0117390e-01	1.1444890e-02	1.5116500e-02	1.5116490e-02
0.5           	6.9659420e-02	1.0661920e-02	1.4672890e-02	1.4672890e-02
0.6           	5.2093540e-02	1.0420040e-02	1.4498540e-02	1.4498540e-02
0.7           	4.3142810e-02	1.0281580e-02	1.4390270e-02	1.4390270e-02
0.8           	3.8031470e-02	1.0234550e-02	1.4330350e-02	1.4330350e-02
0.9           	3.5230690e-02	1.0246150e-02	1.4296800e-02	1.4296800e-02
1             	3.4185940e-02	1.0266360e-02	1.4294040e-02	1.4294040e-02
1.1           	3.3530730e-02	1.0280480e-02	1.4252720e-02	1.4252720e-02
1.2           	3.3241790e-02	1.0263200e-02	1.4167890e-02	1.4167890e-02
1.3           	3.3300600e-02	1.0237570e-02	1.4065610e-02	1.4065610e-02
1.4           	3.3220890e-02	1.0181870e-02	1.3929170e-02	1.3929170e-02
1.5           	3.2462320e-02	1.0101410e-02	1.3781540e-02	1.3781540e-02
1.6           	3.1367500e-02	1.0019160e-02	1.3630290e-02	1.3630290e-02
1.7           	3.0915520e-02	9.9253990e-03	1.3463460e-02	1.3463460e-02
1.8           	3.0364910e-02	9.8424800e-03	1.3294690e-02	1.3294690e-02
1.9           	2.9172770e-02	9.7680770e-03	1.3117300e-02	1.3117300e-02
2             	2.8451270e-02	9.7003760e-03	1.2940970e-02	1.2940970e-02
2.1           	2.7820340e-02	9.6226860e-03	1.2767880e-02	1.2767880e-02
2.2           	2.7060660e-02	9.5441010e-03	1.2614120e-02	1.2614120e-02
2.3           	2.6154960e-02	9.4797930e-03	1.2481310e-02	1.2481310e-02
2.4           	2.5163190e-02	9.4033810e-03	1.2367720e-02	1.2367720e-02
2.5           	2.4525440e-02	9.3222620e-03	1.2260530e-02	1.2260530e-02
2.6           	2.4644010e-02	9.2469770e-03	1.2169130e-02	1.2169130e-02
2.7           	2.4407950e-02	9.1567570e-03	1.2087480e-02	1.2087480e-02
2.8           	2.4017190e-02	9.0736710e-03	1.2009980e-02	1.2009980e-02
2.9           	2.4137830e-02	8.9926910e-03	1.1933230e-02	1.1933230e-02
3             	2.4189530e-02	8.9090110e-03	1.1850150e-02	1.1850150e-02
3.1           	2.3987950e-02	8.8214190e-03	1.1765180e-02	1.1765180e-02
3.2           	2.3678250e-02	8.7307050e-03	1.1686520e-02	1.1686520e-02
3.3           	2.3659750e-02	8.6456550e-03	1.1611490e-02	1.1611490e-02
3.4           	2.3343560e-02	8.5664260e-03	1.1531780e-02	1.1531780e-02
3.5           	2.3112510e-02	8.4994480e-03	1.1456110e-02	1.1456110e-02
3.6           	2.3051730e-02	8.4226440e-03	1.1383340e-02	1.1383340e-02
3.7           	2.3023970e-02	8.3461180e-03	1.1311350e-02	1.1311350e-02
3.8           	2.3021160e-02	8.2796440e-03	1.1235530e-02	1.1235530e-02
3.9           	2.3176130e-02	8.2127780e-03	1.1179810e-02	1.1179810e-02
4             	2.3221850e-02	8.1483740e-03	1.1133950e-02	1.1133950e-02
4.1           	2.2999080e-02	8.0967350e-03	1.1098330e-02	1.1098330e-02
4.2           	2.3068530e-02	8.0457400e-03	1.1066540e-02	1.1066540e-02
4.3           	2.2881720e-02	7.9902170e-03	1.1026620e-02	1.1026620e-02
4.4           	2.2687910e-02	7.9421270e-03	1.0983050e-02	1.0983050e-02
4.5           	2.2678580e-02	7.8910690e-03	1.0929170e-02	1.0929170e-02
4.6           	2.2946430e-02	7.8406470e-03	1.0863000e-02	1.0863000e-02
4.7           	2.2782420e-02	7.7825510e-03	1.0799340e-02	1.0799340e-02
4.8           	2.2734740e-02	7.7231520e-03	1.0745060e-02	1.0745060e-02
4.9           	2.2306160e-02	7.6712100e-03	1.0697870e-02	1.0697870e-02
5             	2.2246270e-02	7.6262230e-03	1.0654040e-02	1.0654040e-02
5.1           	2.2168140e-02	7.5887340e-03	1.0613340e-02	1.0613340e-02
5.2           	2.1942670e-02	7.5530490e-03	1.0568530e-02	1.0568530e-02
5.3           	2.1930790e-02	7.5132530e-03	1.0518880e-02	1.0518880e-02
5.4           	2.1721120e-02	7.4678590e-03	1.0467130e-02	1.0467130e-02
5.5           	2.1720490e-02	7.4215160e-03	1.0421330e-02	1.0421330e-02
5.6           	2.1443770e-02	7.3705890e-03	1.0384660e-02	1.0384660e-02
5.7           	2.1313230e-02	7.3206570e-03	1.0350290e-02	1.0350290e-02
5.8           	2.0984640e-02	7.2708750e-03	1.0311140e-02	1.0311140e-02
5.9           	2.1124240e-02	7.2279260e-03	1.0270810e-02	1.0270810e-02
6             	2.1098100e-02	7.1848430e-03	1.0228510e-02	1.0228510e-02
6.1           	2.1046750e-02	7.1414520e-03	1.0184100e-02	1.0184100e-02
6.2           	2.1051250e-02	7.0998770e-03	1.0144970e-02	1.0144970e-02
6.3           	2.0721210e-02	7.0564760e-03	1.0104230e-02	1.0104230e-02
6.4           	2.0701240e-02	7.0092850e-03	1.0070150e-02	1.0070140e-02
6.5           	2.0623210e-02	6.9649150e-03	1.0036510e-02	1.0036520e-02
6.6           	2.0675570e-02	6.9197270e-03	9.9985300e-03	9.9985160e-03
6.7           	2.0415930e-02	6.8790280e-03	9.9599020e-03	9.9599160e-03
6.8           	2.0392750e-02	6.8379250e-03	9.9167050e-03	9.9166970e-03
6.9           	2.0285390e-02	6.7999900e-03	9.8720840e-03	9.8720950e-03
7             	2.0138190e-02	6.7652230e-03	9.8270290e-03	9.8270280e-03
7.1           	2.0146010e-02	6.7323380e-03	9.7863380e-03	9.7863260e-03
7.2           	2.0183880e-02	6.7008830e-03	9.7513510e-03	9.7513700e-03
7.3           	2.0168130e-02	6.6640450e-03	9.7141860e-03	9.7141490e-03
7.4           	1.9990260e-02	6.6289930e-03	9.6757450e-03	9.6757760e-03
7.5           	2.0059300e-02	6.5980350e-03	9.6400860e-03	9.6400570e-03
7.6           	2.0092690e-02	6.5647220e-03	9.6044170e-03	9.6044480e-03
7.7           	2.0163690e-02	6.5350120e-03	9.5663650e-03	9.5663580e-03
7.8           	1.9953540e-02	6.5050310e-03	9.5275660e-03	9.5275660e-03
7.9           	1.9912130e-02	6.4762630e-03	9.4899490e-03	9.4899990e-03
8             	1.9882120e-02	6.4471780e-03	9.4534390e-03	9.4533890e-03
8.1           	1.9895650e-02	6.4194330e-03	9.4169230e-03	9.4169730e-03
8.2           	1.9740710e-02	6.3946470e-03	9.3775430e-03	9.3774780e-03
8.3           	1.9824860e-02	6.3727640e-03	9.3410950e-03	9.3411690e-03
8.4           	1.9595740e-02	6.3507530e-03	9.3089240e-03	9.3088490e-03
8.5           	1.9858810e-02	6.3330790e-03	9.2779540e-03	9.2780500e-03
8.6           	1.9821860e-02	6.3127030e-03	9.2455570e-03	9.2454280e-03
8.7           	1.9839020e-02	6.2901930e-03	9.2123410e-03	9.2124830e-03
8.8           	1.9768360e-02	6.2687120e-03	9.1817390e-03	9.1815850e-03
8.9           	1.9747060e-02	6.2439480e-03	9.1487510e-03	9.1489290e-03
9             	1.9553660e-02	6.2194780e-03	9.1207490e-03	9.1206060e-03
9.1           	1.9733120e-02	6.1987990e-03	9.0920860e-03	9.0921810e-03
9.2           	1.9882160e-02	6.1795980e-03	9.0611720e-03	9.0611320e-03
9.3           	1.9758730e-02	6.1599160e-03	9.0288140e-03	9.0288000e-03
9.4           	1.9841800e-02	6.1406880e-03	8.9977560e-03	8.9978120e-03
9.5           	1.9545740e-02	6.1233930e-03	8.9671880e-03	8.9670960e-03
9.6           	1.9755770e-02	6.1095650e-03	8.9407950e-03	8.9409120e-03
9.7           	1.9930100e-02	6.0942030e-03	8.9188720e-03	8.9187580e-03
9.8           	1.9912160e-02	6.0766070e-03	8.8981510e-03	8.8982470e-03
9.9           	1.9860970e-02	6.0611890e-03	8.8821370e-03	8.8820420e-03
10            	2.0019600e-02	6.0454260e-03	8.8626320e-03	8.8627090e-03
10.1          	2.0246560e-02	6.0308480e-03	8.8431410e-03	8.8430720e-03
10.2          	2.0219770e-02	6.0151800e-03	8.8283770e-03	8.8284390e-03
10.3          	2.0512740e-02	5.9999950e-03	8.8120600e-03	8.8119930e-03
10.4          	2.0501720e-02	5.9852210e-03	8.7953650e-03	8.7954280e-03
10.5          	2.0503710e-02	5.9729260e-03	8.7819750e-03	8.7819110e-03
10.6          	2.0579620e-02	5.9587060e-03	8.7653170e-03	8.7653970e-03
10.7          	2.0599300e-02	5.9475050e-03	8.7515810e-03	8.7514990e-03
10.8          	2.0733730e-02	5.9360680e-03	8.7367170e-03	8.7367990e-03
10.9          	2.0960740e-02	5.9238200e-03	8.7251050e-03	8.7250360e-03
11            	2.0963070e-02	5.9107250e-03	8.7202350e-03	8.7202810e-03
11.1          	2.1030870e-02	5.9015190e-03	8.7156820e-03	8.7156440e-03
11.2          	2.1160900e-02	5.8963290e-03	8.7126480e-03	8.7126770e-03
11.3          	2.1258480e-02	5.8901070e-03	8.7078770e-03	8.7078630e-03
11.4          	2.1256710e-02	5.8866180e-03	8.7027460e-03	8.7027570e-03
11.5          	2.1384100e-02	5.8801600e-03	8.6979280e-03	8.6979170e-03
11.6          	2.1521600e-02	5.8746500e-03	8.6925770e-03	8.6925840e-03
11.7          	2.1538120e-02	5.8709200e-03	8.6917070e-03	8.6917020e-03
11.8          	2.1950780e-02	5.8677280e-03	8.6930820e-03	8.6930900e-03
11.9          	2.1933920e-02	5.8582920e-03	8.6962700e-03	8.6962630e-03
12            	2.2044690e-02	5.8533100e-03	8.6958490e-03	8.6958510e-03
12.1          	2.1947780e-02	5.8499410e-03	8.6952140e-03	8.6952160e-03
12.2          	2.2148760e-02	5.8484350e-03	8.6995590e-03	8.6995560e-03
12.3          	2.1971250e-02	5.8425330e-03	8.7001670e-03	8.7001540e-03
12.4          	2.2318700e-02	5.8350540e-03	8.7011300e-03	8.7011460e-03
12.5          	2.2481050e-02	5.8288650e-03	8.7055080e-03	8.7054990e-03
12.6          	2.2421940e-02	5.8234370e-03	8.7104210e-03	8.7104390e-03
12.7          	2.2606740e-02	5.8196790e-03	8.7142640e-03	8.7142420e-03
12.8          	2.2400460e-02	5.8201650e-03	8.7137400e-03	8.7137650e-03
12.9          	2.2574370e-02	5.8184560e-03	8.7173440e-03	8.7173220e-03
13            	2.2670810e-02	5.8146920e-03	8.7218940e-03	8.7219230e-03
13.1          	2.2634120e-02	5.8116570e-03	8.7289800e-03	8.7289570e-03
13.2          	2.2847090e-02	5.8100510e-03	8.7354800e-03	8.7355050e-03
13.3          	2.2937070e-02	5.8131380e-03	8.7374840e-03	8.7374760e-03
13.4          	2.3099840e-02	5.8125650e-03	8.7382990e-03	8.7382970e-03
13.5          	2.3065900e-02	5.8090860e-03	8.7374460e-03	8.7374520e-03
13.6          	2.3314370e-02	5.8058590e-03	8.7378430e-03	8.7378200e-03
13.7          	2.3328680e-02	5.8013060e-03	8.7435220e-03	8.7435680e-03
13.8          	2.3514990e-02	5.7991410e-03	8.7517580e-03	8.7517240e-03
13.9          	2.3614620e-02	5.7968710e-03	8.7607720e-03	8.7608160e-03
14            	2.3578270e-02	5.7969630e-03	8.7675520e-03	8.7675020e-03
14.1          	2.3530610e-02	5.7996320e-03	8.7729570e-03	8.7730100e-03
14.2          	2.3589030e-02	5.8015720e-03	8.7791860e-03	8.7791320e-03
14.3          	2.3787730e-02	5.8038460e-03	8.7822100e-03	8.7822430e-03
14.4          	2.3701290e-02	5.8046490e-03	8.7859060e-03	8.7858590e-03
14.5          	2.4167540e-02	5.8049810e-03	8.7962210e-03	8.7962710e-03
14.6          	2.4140900e-02	5.8026320e-03	8.8074390e-03	8.8073710e-03
14.7          	2.4194320e-02	5.8011450e-03	8.8189530e-03	8.8190100e-03
14.8          	2.4079130e-02	5.8014530e-03	8.8282430e-03	8.8281770e-03
14.9          	2.4019870e-02	5.8019120e-03	8.8334750e-03	8.8335260e-03
15            	2.4322820e-02	5.8088320e-03	8.8414310e-03	8.8414120e-03
15.1          	2.4746320e-02	5.8128080e-03	8.8523520e-03	8.8523730e-03
15.2          	2.4503610e-02	5.8165850e-03	8.8649960e-03	8.8649900e-03
15.3          	2.4557730e-02	5.8178150e-03	8.8758010e-03	8.8757950e-03
15.4          	2.4888990e-02	5.8157630e-03	8.8850190e-03	8.8850370e-03
15.5          	2.5072360e-02	5.8184230e-03	8.8927530e-03	8.8927350e-03
15.6          	2.5397850e-02	5.8243420e-03	8.8997860e-03	8.8998180e-03
15.7          	2.5522060e-02	5.8315170e-03	8.9113160e-03	8.9112950e-03
15.8          	2.5597370e-02	5.8384440e-03	8.9223710e-03	8.9224050e-03
15.9          	2.5676490e-02	5.8489950e-03	8.9360900e-03	8.9360680e-03
16            	2.5461170e-02	5.8601270e-03	8.9501640e-03	8.9501840e-03
16.1          	2.5800430e-02	5.8688620e-03	8.9638590e-03	8.9638700e-03
16.2          	2.5812500e-02	5.8689010e-03	8.9768140e-03	8.9767910e-03
16.3          	2.6002350e-02	5.8713200e-03	8.9887990e-03	8.9888170e-03
16.4          	2.6376390e-02	5.8770090e-03	8.9998140e-03	8.9997830e-03
16.5          	2.6285660e-02	5.8847570e-03	9.0119260e-03	9.0119640e-03
16.6          	2.6671830e-02	5.8945610e-03	9.0296040e-03	9.0295610e-03
16.7          	2.6414400e-02	5.9059600e-03	9.0468180e-03	9.0468750e-03
16.8          	2.6688030e-02	5.9190020e-03	9.0607730e-03	9.0607170e-03
16.9          	2.6653270e-02	5.9310520e-03	9.0700580e-03	9.0701050e-03
17            	2.6733730e-02	5.9414400e-03	9.0810090e-03	9.0809650e-03
17.1          	2.7160460e-02	5.9461730e-03	9.0911710e-03	9.0912130e-03
17.2          	2.7198860e-02	5.9481760e-03	9.1041610e-03	9.1041280e-03
17.3          	2.7143090e-02	5.9538860e-03	9.1177320e-03	9.1177700e-03
17.4          	2.7028600e-02	5.9574600e-03	9.1290900e-03	9.1290870e-03
17.5          	2.6971550e-02	5.9593720e-03	9.1462240e-03	9.1462300e-03
17.6          	2.6999370e-02	5.9616580e-03	9.1613670e-03	9.1613640e-03
17.7          	2.7183410e-02	5.9653400e-03	9.1736020e-03	9.1736090e-03
17.8          	2.7305940e-02	5.9675460e-03	9.1821460e-03	9.1821490e-03
17.9          	2.7285880e-02	5.9694620e-03	9.1899850e-03	9.1899710e-03
18            	2.7097360e-02	5.9742340e-03	9.2006850e-03	9.2007120e-03
18.1          	2.7330570e-02	5.9775790e-03	9.2118280e-03	9.2117910e-03
18.2          	2.7358540e-02	5.9818640e-03	9.2263470e-03	9.2264130e-03
18.3          	2.7353790e-02	5.9869850e-03	9.2393430e-03	9.2392760e-03
18.4          	2.7308470e-02	5.9879020e-03	9.2559390e-03	9.2560090e-03
18.5          	2.7543760e-02	5.9881940e-03	9.2707870e-03	9.2707310e-03
18.6          	2.7518940e-02	5.9874710e-03	9.2822620e-03	9.2823150e-03
18.7          	2.7698820e-02	5.9922360e-03	9.2934480e-03	9.2934080e-03
18.8          	2.7443570e-02	5.9968850e-03	9.3055220e-03	9.3055670e-03
18.9          	2.7698650e-02	6.0027990e-03	9.3149380e-03	9.3148970e-03
19            	2.7780480e-02	6.0080560e-03	9.3292260e-03	9.3292620e-03
19.1          	2.7935460e-02	6.0112210e-03	9.3394110e-03	9.3393800e-03
19.2          	2.7781990e-02	6.0115880e-03	9.3476480e-03	9.3476670e-03
19.3          	2.7845610e-02	6.0122060e-03	9.3608360e-03	9.3608050e-03
19.4          	2.7820390e-02	6.0135140e-03	9.3764200e-03	9.3764710e-03
19.5          	2.7955380e-02	6.0138570e-03	9.3873710e-03	9.3873200e-03
19.6          	2.7815030e-02	6.0153610e-03	9.3980440e-03	9.3981010e-03
19.7          	2.8229210e-02	6.0227840e-03	9.4064850e-03	9.4064250e-03
19.8          	2.7912720e-02	6.0310830e-03	9.4167060e-03	9.4167560e-03
19.9          	2.8203040e-02	6.0362900e-03	9.4268060e-03	9.4267850e-03
20            	2.8146980e-02	6.0420060e-03	9.4412900e-03	9.4412900e-03
20.1          	2.8271400e-02	6.0464480e-03	9.4535290e-03	9.4535310e-03
20.2          	2.8374950e-02	6.0498060e-03	9.4698400e-03	9.4698310e-03
20.3          	2.8531310e-02	6.0561630e-03	9.4879540e-03	9.4879640e-03
20.4          	2.8582190e-02	6.0609290e-03	9.5081840e-03	9.5081710e-03
20.5          	2.8478860e-02	6.0652060e-03	9.5246280e-03	9.5246480e-03
20.6          	2.8605900e-02	6.0713900e-03	9.5375050e-03	9.5374870e-03
20.7          	2.8683850e-02	6.0795150e-03	9.5509500e-03	9.5509650e-03
20.8          	2.8722060e-02	6.0838140e-03	9.5640840e-03	9.5640780e-03
20.9          	2.8895610e-02	6.0881860e-03	9.5795170e-03	9.5795160e-03
21            	2.9095520e-02	6.0967960e-03	9.5968810e-03	9.5968870e-03
21.1          	2.9054230e-02	6.1039760e-03	9.6109850e-03	9.6109770e-03
21.2          	2.9252560e-02	6.1114370e-03	9.6225850e-03	9.6225930e-03
21.3          	2.9427080e-02	6.1153790e-03	9.6385040e-03	9.6384960e-03
21.4          	2.9295540e-02	6.1204570e-03	9.6556010e-03	9.6556070e-03
21.5          	2.9361500e-02	6.1309130e-03	9.6688840e-03	9.6688790e-03
21.6          	2.9377910e-02	6.1414060e-03	9.6819240e-03	9.6819280e-03
21.7          	2.9727550e-02	6.1493630e-03	9.6916550e-03	9.6916470e-03
21.8          	2.9637010e-02	6.1531030e-03	9.7034790e-03	9.7034830e-03
21.9          	2.9492920e-02	6.1567450e-03	9.7190270e-03	9.7190270e-03
22            	2.9658180e-02	6.1657780e-03	9.7376520e-03	9.7376450e-03
22.1          	2.9659960e-02	6.1755840e-03	9.7553840e-03	9.7553890e-03
22.2          	2.9700490e-02	6.1852250e-03	9.7712560e-03	9.7712480e-03
22.3          	2.9806460e-02	6.1966900e-03	9.7882710e-03	9.7882810e-03
22.4          	2.9726820e-02	6.2080590e-03	9.8030230e-03	9.8030080e-03
22.5          	2.9700090e-02	6.2169460e-03	9.8167890e-03	9.8168000e-03
22.6          	2.9921770e-02	6.2228290e-03	9.8271030e-03	9.8270950e-03
22.7          	2.9901640e-02	6.2285040e-03	9.8401830e-03	9.8401890e-03
22.8          	2.9925990e-02	6.2320640e-03	9.8532560e-03	9.8532460e-03
22.9          	3.0000230e-02	6.2385140e-03	9.8709780e-03	9.8709860e-03
23            	3.0133640e-02	6.2420560e-03	9.8895680e-03	9.8895620e-03
23.1          	3.0225010e-02	6.2473750e-03	9.9078940e-03	9.9079010e-03
23.2          	3.0068700e-02	6.2542940e-03	9.9236050e-03	9.9235960e-03
23.3          	3.0281620e-02	6.2632630e-03	9.9408820e-03	9.9408840e-03
23.4          	3.0159330e-02	6.2722970e-03	9.9568150e-03	9.9568080e-03
23.5          	3.0351080e-02	6.2813760e-03	9.9686900e-03	9.9686880e-03
23.6          	3.0470350e-02	6.2939700e-03	9.9816040e-03	9.9816030e-03
23.7          	3.0333210e-02	6.3039400e-03	9.9996260e-03	9.9996220e-03
23.8          	3.0483140e-02	6.3134830e-03	1.0022440e-02	1.0022440e-02
23.9          	3.0643560e-02	6.3233030e-03	1.0046510e-02	1.0046500e-02
24            	3.0760470e-02	6.3309620e-03	1.0063540e-02	1.0063540e-02
24.1          	3.0826630e-02	6.3388880e-03	1.0082060e-02	1.0082060e-02
24.2          	3.0944770e-02	6.3454220e-03	1.0101250e-02	1.0101230e-02
24.3          	3.1040840e-02	6.3531270e-03	1.0121680e-02	1.0121680e-02
24.4          	3.1097660e-02	6.3649750e-03	1.0146340e-02	1.0146350e-02
24.5          	3.1085410e-02	6.3774630e-03	1.0173890e-02	1.0173870e-02
24.6          	3.0865630e-02	6.3875920e-03	1.0199820e-02	1.0199840e-02
24.7          	3.0865120e-02	6.3991480e-03	1.0221840e-02	1.0221820e-02
24.8          	3.1022070e-02	6.4088810e-03	1.0240590e-02	1.0240620e-02
24.9          	3.1177290e-02	6.4150360e-03	1.0258810e-02	1.0258780e-02
25            	3.1179710e-02	6.4236330e-03	1.0276920e-02	1.0276950e-02
25.1          	3.1155870e-02	6.4363310e-03	1.0296640e-02	1.0296610e-02
25.2          	3.1508260e-02	6.4493830e-03	1.0317920e-02	1.0317950e-02
25.3          	3.1585470e-02	6.4636130e-03	1.0343440e-02	1.0343400e-02
25.4          	3.1573570e-02	6.4745240e-03	1.0366470e-02	1.0366510e-02
25.5          	3.1491730e-02	6.4876730e-03	1.0387570e-02	1.0387540e-02
25.6          	3.1558110e-02	6.5027310e-03	1.0409890e-02	1.0409910e-02
25.7          	3.1436730e-02	6.5154040e-03	1.0435040e-02	1.0435010e-02
25.8          	3.1775100e-02	6.5261470e-03	1.0460490e-02	1.0460540e-02
25.9          	3.1752620e-02	6.5405130e-03	1.0485300e-02	1.0485250e-02
26            	3.1844080e-02	6.5508900e-03	1.0506050e-02	1.0506100e-02
26.1          	3.1689830e-02	6.5586190e-03	1.0530830e-02	1.0530790e-02
26.2          	3.1921240e-02	6.5691040e-03	1.0555450e-02	1.0555460e-02
26.3          	3.2253530e-02	6.5785350e-03	1.0579480e-02	1.0579480e-02
26.4          	3.2072520e-02	6.5872680e-03	1.0599420e-02	1.0599420e-02
26.5          	3.2094860e-02	6.5991910e-03	1.0621990e-02	1.0621990e-02
26.6          	3.2247860e-02	6.6107550e-03	1.0641820e-02	1.0641830e-02
26.7          	3.2382960e-02	6.6211440e-03	1.0664160e-02	1.0664150e-02
26.8          	3.2255010e-02	6.6299630e-03	1.0688010e-02	1.0688020e-02
26.9          	3.2465640e-02	6.6371410e-03	1.0711330e-02	1.0711320e-02
27            	3.2613980e-02	6.6491660e-03	1.0734850e-02	1.0734850e-02
27.1          	3.2682950e-02	6.6597620e-03	1.0762100e-02	1.0762100e-02
27.2          	3.2746120e-02	6.6717250e-03	1.0787590e-02	1.0787590e-02
27.3          	3.2629150e-02	6.6825340e-03	1.0813970e-02	1.0813980e-02
27.4          	3.2743660e-02	6.6935770e-03	1.0840220e-02	1.0840240e-02
27.5          	3.3050040e-02	6.7036270e-03	1.0866110e-02	1.0866080e-02
27.6          	3.3149840e-02	6.7186270e-03	1.0890180e-02	1.0890200e-02
27.7          	3.3210980e-02	6.7328150e-03	1.0914520e-02	1.0914500e-02
27.8          	3.3219380e-02	6.7471370e-03	1.0934040e-02	1.0934040e-02
27.9          	3.3419450e-02	6.7586940e-03	1.0954840e-02	1.0954850e-02
28            	3.3399560e-02	6.7668160e-03	1.0978630e-02	1.0978620e-02
28.1          	3.3171770e-02	6.7730360e-03	1.1010520e-02	1.1010530e-02
28.2          	3.3064460e-02	6.7817020e-03	1.1039690e-02	1.1039680e-02
28.3          	3.3256000e-02	6.7900080e-03	1.1065180e-02	1.1065190e-02
28.4          	3.3312170e-02	6.7978570e-03	1.1088460e-02	1.1088460e-02
28.5          	3.3334860e-02	6.8059590e-03	1.1108160e-02	1.1108180e-02
28.6          	3.3507100e-02	6.8132840e-03	1.1129920e-02	1.1129880e-02
28.7          	3.3625550e-02	6.8183290e-03	1.1151780e-02	1.1151810e-02
28.8          	3.3526070e-02	6.8257990e-03	1.1172770e-02	1.1172740e-02
28.9          	3.3598670e-02	6.8332840e-03	1.1194450e-02	1.1194480e-02
29            	3.3675700e-02	6.8384940e-03	1.1214670e-02	1.1214640e-02
29.1          	3.3614930e-02	6.8451920e-03	1.1232970e-02	1.1232980e-02
29.2          	3.3871760e-02	6.8541550e-03	1.1253480e-02	1.1253480e-02
29.3          	3.3915330e-02	6.8629830e-03	1.1272230e-02	1.1272210e-02
29.4          	3.4105370e-02	6.8731240e-03	1.1290440e-02	1.1290460e-02
29.5          	3.4057170e-02	6.8833910e-03	1.1310420e-02	1.1310380e-02
29.6          	3.4116590e-02	6.8911870e-03	1.1330930e-02	1.1330970e-02
29.7          	3.4139310e-02	6.8963590e-03	1.1349570e-02	1.1349530e-02
29.8          	3.4226260e-02	6.9024400e-03	1.1367950e-02	1.1367980e-02
29.9          	3.4368100e-02	6.9057750e-03	1.1381800e-02	1.1381760e-02
30            	3.4484730e-02	6.9104600e-03	1.1397200e-02	1.1397230e-02
30.1          	3.4613230e-02	6.9184230e-03	1.1411760e-02	1.1411720e-02
30.2          	3.4407050e-02	6.9257130e-03	1.1429980e-02	1.1430010e-02
30.3          	3.4515750e-02	6.9339990e-03	1.1450090e-02	1.1450060e-02
30.4          	3.4670460e-02	6.9403110e-03	1.1466140e-02	1.1466170e-02
30.5          	3.4600030e-02	6.9473800e-03	1.1481770e-02	1.1481730e-02
30.6          	3.4602980e-02	6.9551830e-03	1.1494830e-02	1.1494850e-02
30.7          	3.4572150e-02	6.9618270e-03	1.1505120e-02	1.1505090e-02
30.8          	3.4463540e-02	6.9701020e-03	1.1518490e-02	1.1518500e-02
30.9          	3.4544450e-02	6.9795150e-03	1.1528740e-02	1.1528730e-02
31            	3.4689540e-02	6.9866640e-03	1.1539900e-02	1.1539910e-02
31.1          	3.4753000e-02	6.9882310e-03	1.1549810e-02	1.1549800e-02
31.2          	3.4681050e-02	6.9919870e-03	1.1557820e-02	1.1557830e-02
31.3          	3.4732500e-02	6.9997200e-03	1.1568200e-02	1.1568190e-02
31.4          	3.4839140e-02	7.0106360e-03	1.1578700e-02	1.1578690e-02
31.5          	3.4789000e-02	7.0178720e-03	1.1590560e-02	1.1590570e-02
31.6          	3.4456800e-02	7.0237720e-03	1.1601510e-02	1.1601490e-02
31.7          	3.4545710e-02	7.0317550e-03	1.1611220e-02	1.1611240e-02
31.8          	3.4686860e-02	7.0415560e-03	1.1618830e-02	1.1618810e-02
31.9          	3.4843490e-02	7.0502430e-03	1.1629220e-02	1.1629240e-02
32            	3.4991620e-02	7.0568370e-03	1.1644580e-02	1.1644560e-02
32.1          	3.5231000e-02	7.0613150e-03	1.1659070e-02	1.1659070e-02
32.2          	3.5009930e-02	7.0684470e-03	1.1670080e-02	1.1670080e-02
32.3          	3.4987690e-02	7.0760920e-03	1.1679410e-02	1.1679410e-02
32.4          	3.5064210e-02	7.0790910e-03	1.1685940e-02	1.1685950e-02
32.5          	3.4986230e-02	7.0813980e-03	1.1694460e-02	1.1694450e-02
32.6          	3.5203540e-02	7.0863110e-03	1.1702920e-02	1.1702930e-02
32.7          	3.5135390e-02	7.0920910e-03	1.1712770e-02	1.1712760e-02
32.8          	3.5135400e-02	7.0990870e-03	1.1723260e-02	1.1723270e-02
32.9          	3.5207690e-02	7.1045700e-03	1.1732310e-02	1.1732280e-02
33            	3.5302200e-02	7.1081800e-03	1.1742460e-02	1.1742480e-02
33.1          	3.5238740e-02	7.1118990e-03	1.1752820e-02	1.1752800e-02
33.2          	3.5252130e-02	7.1174400e-03	1.1763030e-02	1.1763050e-02
33.3          	3.5240850e-02	7.1231920e-03	1.1775630e-02	1.1775600e-02
33.4          	3.5290650e-02	7.1247750e-03	1.1784990e-02	1.1785020e-02
33.5          	3.5393880e-02	7.1286220e-03	1.1791250e-02	1.1791220e-02
33.6          	3.5407110e-02	7.1318600e-03	1.1799840e-02	1.1799860e-02
33.7          	3.5568000e-02	7.1355630e-03	1.1804020e-02	1.1804000e-02
33.8          	3.5437960e-02	7.1412060e-03	1.1812610e-02	1.1812630e-02
33.9          	3.5087930e-02	7.1495470e-03	1.1819910e-02	1.1819910e-02
34            	3.5314390e-02	7.1570250e-03	1.1825190e-02	1.1825190e-02
34.1          	3.5366030e-02	7.1607270e-03	1.1836020e-02	1.1836020e-02
34.2          	3.5506770e-02	7.1632630e-03	1.1845210e-02	1.1845210e-02
34.3          	3.5486820e-02	7.1645280e-03	1.1853630e-02	1.1853640e-02
34.4          	3.5707310e-02	7.1656920e-03	1.1862300e-02	1.1862280e-02
34.5          	3.5572010e-02	7.1699820e-03	1.1866940e-02	1.1866940e-02
34.6          	3.5500440e-02	7.1751060e-03	1.1872820e-02	1.1872800e-02
34.7          	3.5292980e-02	7.1803930e-03	1.1878980e-02	1.1879000e-02
34.8          	3.5373740e-02	7.1877900e-03	1.1887870e-02	1.1887860e-02
34.9          	3.5443900e-02	7.1952750e-03	1.1897230e-02	1.1897220e-02
35            	3.5571440e-02	7.1990290e-03	1.1904560e-02	1.1904590e-02
35.1          	3.5735430e-02	7.2006920e-03	1.1911330e-02	1.1911320e-02
35.2          	3.5840140e-02	7.2043230e-03	1.1919440e-02	1.1919440e-02
35.3          	3.5858830e-02	7.2068400e-03	1.1928740e-02	1.1928740e-02
35.4          	3.5710550e-02	7.2102310e-03	1.1938580e-02	1.1938560e-02
35.5          	3.5741010e-02	7.2164620e-03	1.1949070e-02	1.1949110e-02
35.6          	3.5812840e-02	7.2232370e-03	1.1962440e-02	1.1962410e-02
35.7          	3.5478540e-02	7.2286590e-03	1.1973690e-02	1.1973710e-02
35.8          	3.5890900e-02	7.2374800e-03	1.1982490e-02	1.1982460e-02
35.9          	3.6044970e-02	7.2436380e-03	1.1990520e-02	1.1990530e-02
36            	3.5940520e-02	7.2482060e-03	1.1994420e-02	1.1994430e-02
36.1          	3.5816410e-02	7.2540770e-03	1.2002490e-02	1.2002460e-02
36.2          	3.6384210e-02	7.2618830e-03	1.2012470e-02	1.2012500e-02
36.3          	3.6219110e-02	7.2674260e-03	1.2022110e-02	1.2022090e-02
36.4          	3.6262490e-02	7.2739230e-03	1.2030360e-02	1.2030370e-02
36.5          	3.6343040e-02	7.2811120e-03	1.2040810e-02	1.2040790e-02
36.6          	3.6094290e-02	7.2875410e-03	1.2055550e-02	1.2055550e-02
36.7          	3.6388780e-02	7.2940050e-03	1.2067150e-02	1.2067140e-02
36.8          	3.6694340e-02	7.2977980e-03	1.2075910e-02	1.2075910e-02
36.9          	3.6689100e-02	7.3007720e-03	1.2084640e-02	1.2084630e-02
37            	3.6628720e-02	7.3055640e-03	1.2092530e-02	1.2092530e-02
37.1          	3.6573900e-02	7.3102070e-03	1.2101270e-02	1.2101260e-02
37.2          	3.6690860e-02	7.3159010e-03	1.2109060e-02	1.2109050e-02
37.3          	3.6579560e-02	7.3239400e-03	1.2116540e-02	1.2116540e-02
37.4          	3.6525430e-02	7.3299780e-03	1.2125260e-02	1.2125260e-02
37.5          	3.6595540e-02	7.3317970e-03	1.2137280e-02	1.2137280e-02
37.6          	3.6430200e-02	7.3349840e-03	1.2148120e-02	1.2148110e-02
37.7          	3.6493970e-02	7.3395500e-03	1.2162410e-02	1.2162410e-02
37.8          	3.6770020e-02	7.3444870e-03	1.2176610e-02	1.2176600e-02
37.9          	3.6584110e-02	7.3489820e-03	1.2189130e-02	1.2189120e-02
38            	3.6577670e-02	7.3509910e-03	1.2200810e-02	1.2200800e-02
38.1          	3.6830260e-02	7.3537590e-03	1.2214550e-02	1.2214540e-02
38.2          	3.6843480e-02	7.3595090e-03	1.2228350e-02	1.2228340e-02
38.3          	3.6838600e-02	7.3681930e-03	1.2240800e-02	1.2240790e-02
38.4          	3.6992560e-02	7.3767040e-03	1.2254020e-02	1.2254010e-02
38.5          	3.6974380e-02	7.3824190e-03	1.2268190e-02	1.2268180e-02
38.6          	3.7053690e-02	7.3859750e-03	1.2285470e-02	1.2285460e-02
38.7          	3.7087160e-02	7.3910440e-03	1.2301480e-02	1.2301480e-02
38.8          	3.7096030e-02	7.3977380e-03	1.2317130e-02	1.2317130e-02
38.9          	3.7053020e-02	7.4048000e-03	1.2331040e-02	1.2331030e-02
39            	3.7224600e-02	7.4105820e-03	1.2345770e-02	1.2345760e-02
39.1          	3.7159680e-02	7.4163960e-03	1.2362940e-02	1.2362940e-02
39.2          	3.7454030e-02	7.4225020e-03	1.2381080e-02	1.2381070e-02
39.3          	3.7394800e-02	7.4249510e-03	1.2397000e-02	1.2397000e-02
39.4          	3.7506850e-02	7.4258470e-03	1.2411230e-02	1.2411230e-02
39.5          	3.7496740e-02	7.4296020e-03	1.2425610e-02	1.2425600e-02
39.6          	3.7509040e-02	7.4360520e-03	1.2442790e-02	1.2442790e-02
39.7          	3.7531270e-02	7.4413150e-03	1.2456760e-02	1.2456760e-02
39.8          	3.7436090e-02	7.4479600e-03	1.2465770e-02	1.2465770e-02
39.9          	3.7439230e-02	7.4487340e-03	1.2474980e-02	1.2474980e-02
40            	3.7626600e-02	7.4500400e-03	1.2485860e-02	1.2485850e-02
40.1          	3.7831140e-02	7.4507740e-03	1.2495180e-02	1.2495170e-02
40.2          	3.8048330e-02	7.4531210e-03	1.2504380e-02	1.2504370e-02
40.3          	3.8127880e-02	7.4594660e-03	1.2512480e-02	1.2512470e-02
40.4          	3.8032040e-02	7.4669040e-03	1.2520410e-02	1.2520400e-02
40.5          	3.7851850e-02	7.4717960e-03	1.2532180e-02	1.2532170e-02
40.6          	3.7802820e-02	7.4794140e-03	1.2543170e-02	1.2543160e-02
40.7          	3.7943410e-02	7.4852510e-03	1.2555020e-02	1.2555010e-02
40.8          	3.8026970e-02	7.4872130e-03	1.2569090e-02	1.2569090e-02
40.9          	3.8051650e-02	7.4904310e-03	1.2581470e-02	1.2581460e-02
41            	3.8358530e-02	7.4917470e-03	1.2591430e-02	1.2591430e-02
41.1          	3.8483820e-02	7.4949940e-03	1.2601690e-02	1.2601690e-02
41.2          	3.8537080e-02	7.4991630e-03	1.2612500e-02	1.2612490e-02
41.3          	3.8557470e-02	7.5042490e-03	1.2624080e-02	1.2624070e-02
41.4          	3.8726490e-02	7.5100930e-03	1.2639880e-02	1.2639870e-02
41.5          	3.8688990e-02	7.5166870e-03	1.2655100e-02	1.2655090e-02
41.6          	3.9100880e-02	7.5204170e-03	1.2668460e-02	1.2668460e-02
41.7          	3.9065480e-02	7.5221610e-03	1.2679570e-02	1.2679560e-02
41.8          	3.9008350e-02	7.5237240e-03	1.2688380e-02	1.2688380e-02
41.9          	3.8957710e-02	7.5276380e-03	1.2696110e-02	1.2696110e-02
42            	3.8798030e-02	7.5331520e-03	1.2704380e-02	1.2704380e-02
42.1          	3.8552040e-02	7.5366300e-03	1.2714170e-02	1.2714160e-02